# vtk DataFile Version 3.0
MachLine results file. Generated by MachLine, USU AeroLab (c) 2023.
ASCII
DATASET POLYDATA
POINTS                 308 float
  0.999999900165E+00  0.000000000000E+00 -0.573402141099E-08
  0.965617081316E+00  0.503720627990E+00 -0.394952967507E-02
  0.999999900165E+00  0.503720627990E+00 -0.573402141099E-08
  0.965617081316E+00  0.000000000000E+00 -0.394952967507E-02
  0.905490042408E+00  0.503720627990E+00 -0.105276893178E-01
  0.905490042408E+00  0.000000000000E+00 -0.105276893178E-01
  0.807861735305E+00  0.503720627990E+00 -0.203685193924E-01
  0.807861735305E+00  0.000000000000E+00 -0.203685193924E-01
  0.666965298462E+00  0.503720627990E+00 -0.327305850383E-01
  0.666965298462E+00  0.000000000000E+00 -0.327305850383E-01
  0.494699904191E+00  0.503720627990E+00 -0.442891747950E-01
  0.494699904191E+00  0.000000000000E+00 -0.442891747950E-01
  0.322148056877E+00  0.000000000000E+00 -0.499219386463E-01
  0.322148056877E+00  0.503720627990E+00 -0.499219386463E-01
  0.180771089238E+00  0.000000000000E+00 -0.467581934386E-01
  0.180771089238E+00  0.503720627990E+00 -0.467581934386E-01
  0.832331799010E-01  0.000000000000E+00 -0.364527339013E-01
  0.832331799010E-01  0.503720627990E+00 -0.364527339013E-01
  0.246817062182E-01  0.000000000000E+00 -0.217021513149E-01
  0.246817062182E-01  0.503720627990E+00 -0.217021513149E-01
  0.100000000000E-06  0.000000000000E+00  0.000000000000E+00
  0.100000000000E-06  0.503720627990E+00  0.000000000000E+00
  0.246817062182E-01  0.503720627990E+00  0.217021513149E-01
  0.246817062182E-01  0.000000000000E+00  0.217021513149E-01
  0.832331799010E-01  0.503720627990E+00  0.364527339013E-01
  0.832331799010E-01  0.000000000000E+00  0.364527339013E-01
  0.180771089238E+00  0.503720627990E+00  0.467581934386E-01
  0.180771089238E+00  0.000000000000E+00  0.467581934386E-01
  0.322148056877E+00  0.503720627990E+00  0.499219386463E-01
  0.322148056877E+00  0.000000000000E+00  0.499219386463E-01
  0.494699904191E+00  0.503720627990E+00  0.442891747950E-01
  0.494699904191E+00  0.000000000000E+00  0.442891747950E-01
  0.666965298462E+00  0.000000000000E+00  0.327305850383E-01
  0.666965298462E+00  0.503720627990E+00  0.327305850383E-01
  0.807861735305E+00  0.000000000000E+00  0.203685193924E-01
  0.807861735305E+00  0.503720627990E+00  0.203685193924E-01
  0.905490042408E+00  0.000000000000E+00  0.105276893178E-01
  0.905490042408E+00  0.503720627990E+00  0.105276893178E-01
  0.965617081316E+00  0.000000000000E+00  0.394952967507E-02
  0.965617081316E+00  0.503720627990E+00  0.394952967507E-02
  0.965617081316E+00  0.110747748820E+01 -0.394952967507E-02
  0.999999900165E+00  0.110747748820E+01 -0.573402141099E-08
  0.905490042408E+00  0.110747748820E+01 -0.105276893178E-01
  0.807861735305E+00  0.110747748820E+01 -0.203685193924E-01
  0.666965298462E+00  0.110747748820E+01 -0.327305850383E-01
  0.494699904191E+00  0.110747748820E+01 -0.442891747950E-01
  0.322148056877E+00  0.110747748820E+01 -0.499219386463E-01
  0.180771089238E+00  0.110747748820E+01 -0.467581934386E-01
  0.832331799010E-01  0.110747748820E+01 -0.364527339013E-01
  0.246817062182E-01  0.110747748820E+01 -0.217021513149E-01
  0.100000000000E-06  0.110747748820E+01  0.000000000000E+00
  0.246817062182E-01  0.110747748820E+01  0.217021513149E-01
  0.832331799010E-01  0.110747748820E+01  0.364527339013E-01
  0.180771089238E+00  0.110747748820E+01  0.467581934386E-01
  0.322148056877E+00  0.110747748820E+01  0.499219386463E-01
  0.494699904191E+00  0.110747748820E+01  0.442891747950E-01
  0.666965298462E+00  0.110747748820E+01  0.327305850383E-01
  0.807861735305E+00  0.110747748820E+01  0.203685193924E-01
  0.905490042408E+00  0.110747748820E+01  0.105276893178E-01
  0.965617081316E+00  0.110747748820E+01  0.394952967507E-02
  0.965617081316E+00  0.175813428970E+01 -0.394952967507E-02
  0.999999900165E+00  0.175813428970E+01 -0.573402141099E-08
  0.905490042408E+00  0.175813428970E+01 -0.105276893178E-01
  0.807861735305E+00  0.175813428970E+01 -0.203685193924E-01
  0.666965298462E+00  0.175813428970E+01 -0.327305850383E-01
  0.494699904191E+00  0.175813428970E+01 -0.442891747950E-01
  0.322148056877E+00  0.175813428970E+01 -0.499219386463E-01
  0.180771089238E+00  0.175813428970E+01 -0.467581934386E-01
  0.832331799010E-01  0.175813428970E+01 -0.364527339013E-01
  0.246817062182E-01  0.175813428970E+01 -0.217021513149E-01
  0.100000000000E-06  0.175813428970E+01  0.000000000000E+00
  0.246817062182E-01  0.175813428970E+01  0.217021513149E-01
  0.832331799010E-01  0.175813428970E+01  0.364527339013E-01
  0.180771089238E+00  0.175813428970E+01  0.467581934386E-01
  0.322148056877E+00  0.175813428970E+01  0.499219386463E-01
  0.494699904191E+00  0.175813428970E+01  0.442891747950E-01
  0.666965298462E+00  0.175813428970E+01  0.327305850383E-01
  0.807861735305E+00  0.175813428970E+01  0.203685193924E-01
  0.905490042408E+00  0.175813428970E+01  0.105276893178E-01
  0.965617081316E+00  0.175813428970E+01  0.394952967507E-02
  0.965617081316E+00  0.238369488720E+01 -0.394952967507E-02
  0.999999900165E+00  0.238369488720E+01 -0.573402141099E-08
  0.905490042408E+00  0.238369488720E+01 -0.105276893178E-01
  0.807861735305E+00  0.238369488720E+01 -0.203685193924E-01
  0.666965298462E+00  0.238369488720E+01 -0.327305850383E-01
  0.494699904191E+00  0.238369488720E+01 -0.442891747950E-01
  0.322148056877E+00  0.238369488720E+01 -0.499219386463E-01
  0.180771089238E+00  0.238369488720E+01 -0.467581934386E-01
  0.832331799010E-01  0.238369488720E+01 -0.364527339013E-01
  0.246817062182E-01  0.238369488720E+01 -0.217021513149E-01
  0.100000000000E-06  0.238369488720E+01  0.000000000000E+00
  0.246817062182E-01  0.238369488720E+01  0.217021513149E-01
  0.832331799010E-01  0.238369488720E+01  0.364527339013E-01
  0.180771089238E+00  0.238369488720E+01  0.467581934386E-01
  0.322148056877E+00  0.238369488720E+01  0.499219386463E-01
  0.494699904191E+00  0.238369488720E+01  0.442891747950E-01
  0.666965298462E+00  0.238369488720E+01  0.327305850383E-01
  0.807861735305E+00  0.238369488720E+01  0.203685193924E-01
  0.905490042408E+00  0.238369488720E+01  0.105276893178E-01
  0.965617081316E+00  0.238369488720E+01  0.394952967507E-02
  0.965617081316E+00  0.292249171970E+01 -0.394952967507E-02
  0.999999900165E+00  0.292249171970E+01 -0.573402141099E-08
  0.905490042408E+00  0.292249171970E+01 -0.105276893178E-01
  0.807861735305E+00  0.292249171970E+01 -0.203685193924E-01
  0.666965298462E+00  0.292249171970E+01 -0.327305850383E-01
  0.494699904191E+00  0.292249171970E+01 -0.442891747950E-01
  0.322148056877E+00  0.292249171970E+01 -0.499219386463E-01
  0.180771089238E+00  0.292249171970E+01 -0.467581934386E-01
  0.832331799010E-01  0.292249171970E+01 -0.364527339013E-01
  0.246817062182E-01  0.292249171970E+01 -0.217021513149E-01
  0.100000000000E-06  0.292249171970E+01  0.000000000000E+00
  0.246817062182E-01  0.292249171970E+01  0.217021513149E-01
  0.832331799010E-01  0.292249171970E+01  0.364527339013E-01
  0.180771089238E+00  0.292249171970E+01  0.467581934386E-01
  0.322148056877E+00  0.292249171970E+01  0.499219386463E-01
  0.494699904191E+00  0.292249171970E+01  0.442891747950E-01
  0.666965298462E+00  0.292249171970E+01  0.327305850383E-01
  0.807861735305E+00  0.292249171970E+01  0.203685193924E-01
  0.905490042408E+00  0.292249171970E+01  0.105276893178E-01
  0.965617081316E+00  0.292249171970E+01  0.394952967507E-02
  0.965617081316E+00  0.334432208550E+01 -0.394952967507E-02
  0.999999900165E+00  0.334432208550E+01 -0.573402141099E-08
  0.905490042408E+00  0.334432208550E+01 -0.105276893178E-01
  0.807861735305E+00  0.334432208550E+01 -0.203685193924E-01
  0.666965298462E+00  0.334432208550E+01 -0.327305850383E-01
  0.494699904191E+00  0.334432208550E+01 -0.442891747950E-01
  0.322148056877E+00  0.334432208550E+01 -0.499219386463E-01
  0.180771089238E+00  0.334432208550E+01 -0.467581934386E-01
  0.832331799010E-01  0.334432208550E+01 -0.364527339013E-01
  0.246817062182E-01  0.334432208550E+01 -0.217021513149E-01
  0.100000000000E-06  0.334432208550E+01  0.000000000000E+00
  0.246817062182E-01  0.334432208550E+01  0.217021513149E-01
  0.832331799010E-01  0.334432208550E+01  0.364527339013E-01
  0.180771089238E+00  0.334432208550E+01  0.467581934386E-01
  0.322148056877E+00  0.334432208550E+01  0.499219386463E-01
  0.494699904191E+00  0.334432208550E+01  0.442891747950E-01
  0.666965298462E+00  0.334432208550E+01  0.327305850383E-01
  0.807861735305E+00  0.334432208550E+01  0.203685193924E-01
  0.905490042408E+00  0.334432208550E+01  0.105276893178E-01
  0.965617081316E+00  0.334432208550E+01  0.394952967507E-02
  0.965617081316E+00  0.365057098370E+01 -0.394952967507E-02
  0.999999900165E+00  0.365057098370E+01 -0.573402141099E-08
  0.905490042408E+00  0.365057098370E+01 -0.105276893178E-01
  0.807861735305E+00  0.365057098370E+01 -0.203685193924E-01
  0.666965298462E+00  0.365057098370E+01 -0.327305850383E-01
  0.494699904191E+00  0.365057098370E+01 -0.442891747950E-01
  0.322148056877E+00  0.365057098370E+01 -0.499219386463E-01
  0.180771089238E+00  0.365057098370E+01 -0.467581934386E-01
  0.832331799010E-01  0.365057098370E+01 -0.364527339013E-01
  0.246817062182E-01  0.365057098370E+01 -0.217021513149E-01
  0.100000000000E-06  0.365057098370E+01  0.000000000000E+00
  0.246817062182E-01  0.365057098370E+01  0.217021513149E-01
  0.832331799010E-01  0.365057098370E+01  0.364527339013E-01
  0.180771089238E+00  0.365057098370E+01  0.467581934386E-01
  0.322148056877E+00  0.365057098370E+01  0.499219386463E-01
  0.494699904191E+00  0.365057098370E+01  0.442891747950E-01
  0.666965298462E+00  0.365057098370E+01  0.327305850383E-01
  0.807861735305E+00  0.365057098370E+01  0.203685193924E-01
  0.905490042408E+00  0.365057098370E+01  0.105276893178E-01
  0.965617081316E+00  0.365057098370E+01  0.394952967507E-02
  0.965617081316E+00  0.386093553560E+01 -0.394952967507E-02
[...]
POINT_DATA                 308
SCALARS BC_type int 1
LOOKUP_TABLE default
           1
           1
           1
           1
           1
           1
           1
           1
           1
           1
           1
           1
           1
           1
           1
           1
           1
           1
           1
           1
           1
           1
           1
           1
           1
           1
           1
           1
           1
           1
           1
           1
           1
           1
           1
           1
           1
           1
           1
           1
           1
           1
           1
           1
           1
           1
           1
           1
           1
           1
           1
           1
           1
           1
           1
           1
           1
           1
           1
           1
           1
           1
           1
           1
           1
           1
           1
           1
           1
           1
           1
           1
           1
           1
           1
           1
           1
           1
           1
           1
           1
           1
           1
           1
           1
           1
           1
           1
           1
           1
           1
           1
           1
           1
           1
           1
           1
           1
           1
           1
           1
           1
           1
           1
           1
           1
           1
           1
           1
           1
           1
           1
           1
           1
           1
           1
           1
           1
           1
           1
           1
           1
           1
           1
           1
           1
           1
           1
           1
           1
           1
           1
           1
           1
           1
           1
           1
           1
           1
           1
           1
           1
           1
           1
           1
           1
           1
           1
           1
           1
           1
           1
           1
           1
           1
           1
           1
           1
           1
           1
           1
           1
           1
           1
           1
           1
           1
           1
           1
           1
           1
           1
           1
           1
           1
           1
           1
           1
           1
           1
           1
           1
           1
           1
           1
           1
           1
           1
           1
           1
           1
           1
           1
           1
           1
           1
           1
           1
           1
           1
           1
           1
           1
           1
           1
           1
           1
           1
           1
           1
           1
           1
           1
           1
           1
           1
           1
           1
           1
           1
           1
           1
           1
           1
           1
           1
           1
           1
           1
           1
           1
           1
           1
           1
           1
           1
           1
           1
           1
           1
           1
           1
           1
           1
           1
           1
           1
           1
           1
           1
           1
           1
           1
           1
           1
           1
           1
           1
           1
           1
           1
           1
           1
           1
           1
           1
           1
           1
           1
           1
           1
           1
           1
           1
           1
           1
           1
           1
           1
           1
           1
           1
           1
           1
           1
           1
           1
           1
           1
           1
           1
           1
           1
           1
           1
           1
           1
           1
           1
           1
           1
           1
           1
           1
           1
           1
           1
           1
SCALARS residual float 1
LOOKUP_TABLE default
 -0.245081732686E-13
  0.292821322745E-13
 -0.390729115729E-13
  0.324254512130E-13
 -0.547999146061E-13
 -0.353085616300E-13
  0.259167687311E-14
  0.133573707650E-13
 -0.387016807490E-13
 -0.338340466755E-13
 -0.276280734401E-13
 -0.299491334510E-13
 -0.434374758385E-14
 -0.565866797864E-14
 -0.266661692727E-13
 -0.277208811461E-13
 -0.209277040142E-13
 -0.218020046461E-13
 -0.212885264972E-13
 -0.220864992961E-13
 -0.245567455259E-13
 -0.246538900406E-13
 -0.330568905582E-13
 -0.339520078718E-13
 -0.124587840045E-13
 -0.141241185414E-13
 -0.351402934529E-13
 -0.381058032350E-13
 -0.370207337008E-13
 -0.424729695858E-13
  0.100267016911E-13
  0.205876982129E-13
 -0.276133282906E-13
 -0.101828268040E-13
  0.596883653614E-13
  0.770321306742E-13
  0.165110980443E-13
  0.133018596138E-13
 -0.619920781375E-13
  0.168233482700E-13
 -0.124518451106E-13
 -0.772507058322E-13
 -0.482669459956E-13
 -0.345227318954E-13
 -0.725808302349E-14
 -0.272629141485E-13
 -0.197758476261E-13
 -0.189986915089E-13
 -0.205599426373E-13
 -0.286298762475E-13
 -0.717481629664E-14
 -0.282543086150E-13
 -0.264736149669E-13
  0.369357322505E-13
  0.990180160088E-14
  0.936993538314E-13
  0.211913819825E-13
 -0.489330798104E-13
 -0.817748646575E-14
  0.798666688340E-14
 -0.638759878324E-13
 -0.789993070960E-14
 -0.292136106972E-13
 -0.179023462721E-14
 -0.215244488899E-13
 -0.137251321419E-13
 -0.116781584403E-13
 -0.166394675816E-13
 -0.269922972862E-13
 -0.786176679313E-14
 -0.310897141365E-13
 -0.318477882955E-13
  0.268257638325E-13
 -0.710195791065E-14
  0.733579863521E-13
  0.670297151117E-14
 -0.829197821517E-14
 -0.121083698623E-14
  0.605140937360E-13
 -0.453456716620E-14
  0.458522109170E-13
 -0.487283824402E-14
  0.103771158333E-13
 -0.197827865200E-13
 -0.214689377387E-13
 -0.303992941930E-13
 -0.320576898361E-13
 -0.413349909856E-13
 -0.219407825242E-13
 -0.476597927790E-13
 -0.553931900349E-13
 -0.104187491967E-13
 -0.624708618169E-13
  0.111403941627E-13
 -0.357804064155E-13
  0.434721703080E-14
  0.257849297469E-13
  0.113267034640E-12
  0.511292397309E-13
  0.771084585072E-13
  0.150365830898E-13
  0.106113035026E-13
 -0.225514051877E-14
 -0.534294830601E-15
 -0.623112672571E-14
 -0.151059720288E-13
 -0.320229953665E-13
 -0.210005624002E-13
 -0.539316855064E-13
 -0.700498686834E-13
 -0.287339596561E-13
 -0.678415656985E-13
 -0.822258927613E-15
 -0.833569324676E-13
 -0.175068293196E-13
 -0.135030875370E-13
  0.867916849501E-13
  0.388925003314E-14
  0.968392033229E-13
  0.551590023656E-13
  0.467369198898E-13
  0.600457183975E-13
  0.363459262687E-13
  0.497032970337E-13
  0.238628561355E-13
  0.673766598069E-14
  0.198278893304E-13
 -0.934322064161E-14
 -0.177080572428E-13
  0.116018306073E-13
 -0.782082731909E-13
  0.320264648135E-13
 -0.225548746347E-13
  0.220136409101E-13
  0.166533453694E-15
 -0.206813732806E-13
  0.345626305354E-13
  0.914338049718E-13
  0.975781955237E-14
  0.304921018990E-13
  0.418935719448E-13
  0.101169073119E-13
  0.164659952340E-13
  0.121846976953E-13
 -0.827116153346E-14
  0.136488043090E-13
 -0.834228519597E-14
 -0.389809712287E-13
  0.386114751283E-13
 -0.935362898247E-14
 -0.425527668657E-13
  0.248863429864E-13
  0.117024445689E-13
 -0.169829428298E-13
  0.530686605771E-13
 -0.913852327145E-14
  0.657460197395E-13
  0.264458593913E-13
  0.343596678887E-13
  0.500710584106E-13
  0.841861302892E-13
  0.471497840770E-13
  0.416125467417E-13
  0.728271609685E-13
  0.327307625447E-13
  0.108775835561E-13
 -0.186309301320E-14
  0.377892162007E-13
 -0.276549616540E-13
  0.504180031058E-13
  0.194046168023E-13
 -0.107275299754E-13
  0.552630857742E-13
  0.294902990916E-14
 -0.424382751163E-13
 -0.118117321479E-13
  0.753650614138E-14
  0.821573711840E-13
  0.768326374745E-13
 -0.208236206056E-13
  0.114717263466E-12
  0.536758137937E-13
  0.112305997835E-12
 -0.259514632006E-13
  0.687418871825E-13
  0.712628740740E-13
 -0.475574440939E-14
 -0.223102786245E-13
 -0.480622486254E-13
  0.163757896132E-14
 -0.108142661492E-13
 -0.645317133063E-14
  0.108801856413E-13
 -0.390104615278E-13
 -0.122853116569E-13
  0.105219652435E-13
  0.460417294568E-13
  0.944209987974E-14
  0.142455491847E-13
  0.424799084797E-13
  0.403878319677E-13
  0.985669879050E-14
  0.265586164172E-14
  0.369470079531E-13
  0.265412691824E-15
 -0.211219930435E-13
 -0.438364622379E-13
  0.968322644290E-14
 -0.658154086786E-14
  0.527355936697E-15
  0.223328300297E-13
 -0.316344173079E-13
 -0.110692705002E-13
  0.523192600355E-14
  0.124410030888E-13
 -0.219026186077E-13
  0.238697950294E-13
  0.548172618409E-14
  0.368108321602E-14
  0.202823868811E-13
 -0.273479155988E-13
  0.517901693753E-14
 -0.294989727090E-14
 -0.181469422822E-13
 -0.355826479392E-13
  0.212989348380E-13
  0.398986399475E-15
  0.329423988088E-14
  0.273427114283E-13
 -0.272559752545E-13
 -0.821738510570E-14
 -0.562050406216E-14
 -0.194102546536E-13
 -0.263192245775E-13
  0.301043912021E-13
 -0.179023462721E-14
 -0.320229953665E-14
  0.273774058979E-13
 -0.304287844921E-13
 -0.248546842829E-13
 -0.117605578054E-13
 -0.135533945178E-13
 -0.302535774210E-13
  0.264996358190E-13
  0.318842174885E-14
  0.276341449723E-14
  0.272074029972E-13
 -0.254067600292E-13
 -0.443221848112E-14
 -0.174166236988E-13
 -0.461115520767E-13
 -0.176941794550E-13
  0.310966530304E-13
  0.377475828373E-14
  0.284147705365E-14
  0.292647850397E-13
 -0.204749411870E-13
 -0.497566397806E-13
 -0.215296530603E-13
 -0.800401411816E-14
 -0.274537337308E-13
  0.266280053562E-13
  0.267841304691E-14
  0.171217207079E-14
  0.261457522299E-13
 -0.242965370045E-13
 -0.117787724019E-14
 -0.266193317389E-13
 -0.639891785392E-13
 -0.690072998744E-14
  0.291849877598E-13
  0.111091691402E-13
  0.106442632486E-13
  0.282378287420E-13
 -0.830585600298E-14
 -0.658366590411E-13
 -0.286975304631E-13
 -0.298372437868E-14
 -0.253512488779E-13
  0.258300325573E-13
  0.167053870737E-14
  0.134094124693E-14
  0.257328880426E-13
 -0.239773478850E-13
 -0.227248775353E-15
 -0.306759825874E-13
 -0.711323361324E-13
 -0.278076173199E-14
  0.281892564846E-13
  0.134510458327E-13
  0.795440102674E-13
  0.205079009330E-13
  0.162266033943E-13
  0.221628271291E-13
  0.927730114952E-14
 -0.776809172542E-14
  0.434513536263E-13
  0.176178516220E-13
 -0.222252771742E-13
 -0.414564216289E-13
  0.110120246255E-13
 -0.139818712164E-13
 -0.435710495461E-13
 -0.513478148889E-14
  0.251604292956E-13
  0.326891291813E-13
  0.210456652106E-13
  0.234118280318E-13
